Jobname.Temp
SP        R                             STO-3G              
Number of atoms                            I                2
Charge                                     I                0
Multiplicity                               I                1
Number of electrons                        I                2
Number of alpha electrons                  I                1
Number of beta electrons                   I                1
Atomic numbers                             I   N=           2
           1           1
Current cartesian coordinates              R   N=           6
  0.00000000E+00  0.00000000E+00 -2.07869874E+00  0.00000000E+00  0.00000000E+00
  2.07869874E+00
Nuclear charges                            R   N=           2
  1.00000000E+00  1.00000000E+00
Number of basis functions                  I                2
Number of contracted shells                I                2
Number of primitive shells                 I                6
Highest angular momentum                   I                0
Largest degree of contraction              I                3
Shell types                                I   N=           2
           0           0
Number of primitives per shell             I   N=           2
           3           3
Shell to atom map                          I   N=           2
           1           2
Primitive exponents                        R   N=           6
  3.42525091E+00  6.23913730E-01  1.68855400E-01  3.42525091E+00  6.23913730E-01
  1.68855400E-01
Contraction coefficients                   R   N=           6
  1.54328971E-01  5.35328142E-01  4.44634542E-01  1.54328971E-01  5.35328142E-01
  4.44634542E-01
Coordinates of each shell                  R   N=           6
  0.00000000E+00  0.00000000E+00 -2.07869874E+00  0.00000000E+00  0.00000000E+00
  2.07869874E+00
Overlap Matrix                             R   N=           3
  1.00000000E+00  8.50810957E-02  1.00000000E+00
Core Hamiltonian Matrix                    R   N=           3
 -7.07086791E-01 -9.87046880E-02 -7.07086791E-01
Orbital Coefficients CCMAN2 Alpha          R   N=           4
  6.78818865E-01  6.78818865E-01 -7.39254031E-01  7.39254031E-01
Number of independent functions            I                2
Alpha MO coefficients                      R   N=           4
  6.78818865E-01  6.78818865E-01 -7.39254031E-01  7.39254031E-01
Alpha Orbital Energies                     R   N=           2
 -2.44326991E-01  8.07327104E-02
Total SCF Density                          R   N=           3
  9.21590104E-01  9.21590104E-01  9.21590104E-01
Pure Switching                             I                1
Dipole_Data                                R   N=           3
  0.00000000E+00  0.00000000E+00 -6.50159994E-17
Quadrupole_Data                            R   N=           6
 -1.83649147E+00  0.00000000E+00 -1.83649147E+00  0.00000000E+00  0.00000000E+00
 -1.07093292E+00
Octapole_Data                              R   N=          10
  0.00000000E+00  0.00000000E+00  0.00000000E+00  0.00000000E+00 -1.13789588E-17
  0.00000000E+00 -1.13789588E-17  0.00000000E+00  0.00000000E+00 -3.64126682E-17
Hexadecapole_Data                          R   N=          15
 -1.53532876E+00  0.00000000E+00 -5.11776255E-01  0.00000000E+00 -1.53532876E+00
  0.00000000E+00  0.00000000E+00  0.00000000E+00  0.00000000E+00 -2.48311214E+00
  0.00000000E+00 -2.48311214E+00  0.00000000E+00  0.00000000E+00 -1.23309302E+01
