Jobname.Temp
SP        R                             STO-3G              
Number of atoms                            I                2
Charge                                     I                0
Multiplicity                               I                1
Number of electrons                        I                2
Number of alpha electrons                  I                1
Number of beta electrons                   I                1
Atomic numbers                             I   N=           2
           1           1
Current cartesian coordinates              R   N=           6
  0.00000000E+00  0.00000000E+00 -2.83458919E-01  0.00000000E+00  0.00000000E+00
  2.83458919E-01
Nuclear charges                            R   N=           2
  1.00000000E+00  1.00000000E+00
Number of basis functions                  I                2
Number of contracted shells                I                2
Number of primitive shells                 I                6
Highest angular momentum                   I                0
Largest degree of contraction              I                3
Shell types                                I   N=           2
           0           0
Number of primitives per shell             I   N=           2
           3           3
Shell to atom map                          I   N=           2
           1           2
Primitive exponents                        R   N=           6
  3.42525091E+00  6.23913730E-01  1.68855400E-01  3.42525091E+00  6.23913730E-01
  1.68855400E-01
Contraction coefficients                   R   N=           6
  1.54328971E-01  5.35328142E-01  4.44634542E-01  1.54328971E-01  5.35328142E-01
  4.44634542E-01
Coordinates of each shell                  R   N=           6
  0.00000000E+00  0.00000000E+00 -2.83458919E-01  0.00000000E+00  0.00000000E+00
  2.83458919E-01
Overlap Matrix                             R   N=           3
  1.00000000E+00  9.24816129E-01  1.00000000E+00
Core Hamiltonian Matrix                    R   N=           3
 -1.49470656E+00 -1.49816150E+00 -1.49470656E+00
Orbital Coefficients CCMAN2 Alpha          R   N=           4
 -5.09671533E-01 -5.09671533E-01 -2.57882968E+00  2.57882968E+00
Number of independent functions            I                2
Alpha MO coefficients                      R   N=           4
 -5.09671533E-01 -5.09671533E-01 -2.57882968E+00  2.57882968E+00
Alpha Orbital Energies                     R   N=           2
 -8.02866619E-01  1.36893880E+00
Total SCF Density                          R   N=           3
  5.19530144E-01  5.19530144E-01  5.19530144E-01
Pure Switching                             I                1
Dipole_Data                                R   N=           3
  0.00000000E+00  0.00000000E+00 -2.32807185E-15
Quadrupole_Data                            R   N=           6
 -1.77212390E+00  0.00000000E+00 -1.77212390E+00  0.00000000E+00  0.00000000E+00
 -1.68868485E+00
Octapole_Data                              R   N=          10
  0.00000000E+00  0.00000000E+00  0.00000000E+00  0.00000000E+00 -4.24740003E-16
  0.00000000E+00 -4.24740003E-16  0.00000000E+00  0.00000000E+00 -1.34336373E-15
Hexadecapole_Data                          R   N=          15
 -1.43473510E+00  0.00000000E+00 -4.78245033E-01  0.00000000E+00 -1.43473510E+00
  0.00000000E+00  0.00000000E+00  0.00000000E+00  0.00000000E+00 -5.01166083E-01
  0.00000000E+00 -5.01166083E-01  0.00000000E+00  0.00000000E+00 -1.57012808E+00
