Jobname.Temp
SP        R                             STO-3G              
Number of atoms                            I                2
Charge                                     I                0
Multiplicity                               I                1
Number of electrons                        I                2
Number of alpha electrons                  I                1
Number of beta electrons                   I                1
Atomic numbers                             I   N=           2
           1           1
Current cartesian coordinates              R   N=           6
  0.00000000E+00  0.00000000E+00 -1.13383567E+00  0.00000000E+00  0.00000000E+00
  1.13383567E+00
Nuclear charges                            R   N=           2
  1.00000000E+00  1.00000000E+00
Number of basis functions                  I                2
Number of contracted shells                I                2
Number of primitive shells                 I                6
Highest angular momentum                   I                0
Largest degree of contraction              I                3
Shell types                                I   N=           2
           0           0
Number of primitives per shell             I   N=           2
           3           3
Shell to atom map                          I   N=           2
           1           2
Primitive exponents                        R   N=           6
  3.42525091E+00  6.23913730E-01  1.68855400E-01  3.42525091E+00  6.23913730E-01
  1.68855400E-01
Contraction coefficients                   R   N=           6
  1.54328971E-01  5.35328142E-01  4.44634542E-01  1.54328971E-01  5.35328142E-01
  4.44634542E-01
Coordinates of each shell                  R   N=           6
  0.00000000E+00  0.00000000E+00 -1.13383567E+00  0.00000000E+00  0.00000000E+00
  1.13383567E+00
Overlap Matrix                             R   N=           3
  1.00000000E+00  3.87032538E-01  1.00000000E+00
Core Hamiltonian Matrix                    R   N=           3
 -9.01413805E-01 -5.12783867E-01 -9.01413805E-01
Orbital Coefficients CCMAN2 Alpha          R   N=           4
 -6.00401374E-01 -6.00401374E-01  9.03163320E-01 -9.03163320E-01
Number of independent functions            I                2
Alpha MO coefficients                      R   N=           4
 -6.00401374E-01 -6.00401374E-01  9.03163320E-01 -9.03163320E-01
Alpha Orbital Energies                     R   N=           2
 -4.26502642E-01  3.44126882E-01
Total SCF Density                          R   N=           3
  7.20963620E-01  7.20963620E-01  7.20963620E-01
Pure Switching                             I                1
Dipole_Data                                R   N=           3
  0.00000000E+00  0.00000000E+00  3.30999291E-15
Quadrupole_Data                            R   N=           6
 -1.89616847E+00  0.00000000E+00 -1.89616847E+00  0.00000000E+00  0.00000000E+00
 -1.11931410E+00
Octapole_Data                              R   N=          10
  0.00000000E+00  0.00000000E+00  0.00000000E+00  0.00000000E+00  5.38906883E-16
  0.00000000E+00  5.38906883E-16  0.00000000E+00  0.00000000E+00  2.81628447E-15
Hexadecapole_Data                          R   N=          15
 -1.60218435E+00  0.00000000E+00 -5.34061451E-01  0.00000000E+00 -1.60218435E+00
  0.00000000E+00  0.00000000E+00  0.00000000E+00  0.00000000E+00 -1.01499433E+00
  0.00000000E+00 -1.01499433E+00  0.00000000E+00  0.00000000E+00 -4.16911112E+00
