Jobname.Temp
SP        R                             6-311G              
Number of atoms                            I                2
Charge                                     I                0
Multiplicity                               I                1
Number of electrons                        I                2
Number of alpha electrons                  I                1
Number of beta electrons                   I                1
Atomic numbers                             I   N=           2
           1           1
Current cartesian coordinates              R   N=           6
  0.00000000E+00  0.00000000E+00 -7.08647297E-01  0.00000000E+00  0.00000000E+00
  7.08647297E-01
Nuclear charges                            R   N=           2
  1.00000000E+00  1.00000000E+00
Number of basis functions                  I                6
Number of contracted shells                I                6
Number of primitive shells                 I               10
Highest angular momentum                   I                0
Largest degree of contraction              I                3
Shell types                                I   N=           6
           0           0           0           0           0           0
Number of primitives per shell             I   N=           6
           3           1           1           3           1           1
Shell to atom map                          I   N=           6
           1           1           1           2           2           2
Primitive exponents                        R   N=          10
  3.38650000E+01  5.09479000E+00  1.15879000E+00  3.25840000E-01  1.02741000E-01
  3.38650000E+01  5.09479000E+00  1.15879000E+00  3.25840000E-01  1.02741000E-01
Contraction coefficients                   R   N=          10
  2.54938145E-02  1.90373109E-01  8.52161486E-01  1.00000000E+00  1.00000000E+00
  2.54938145E-02  1.90373109E-01  8.52161486E-01  1.00000000E+00  1.00000000E+00
Coordinates of each shell                  R   N=          18
  0.00000000E+00  0.00000000E+00 -7.08647297E-01  0.00000000E+00  0.00000000E+00
 -7.08647297E-01  0.00000000E+00  0.00000000E+00 -7.08647297E-01  0.00000000E+00
  0.00000000E+00  7.08647297E-01  0.00000000E+00  0.00000000E+00  7.08647297E-01
  0.00000000E+00  0.00000000E+00  7.08647297E-01
Overlap Matrix                             R   N=          21
  1.00000000E+00  7.06377220E-01  1.00000000E+00  3.73663963E-01  7.88963228E-01
  1.00000000E+00  2.61334528E-01  4.19930690E-01  3.08832628E-01  1.00000000E+00
  4.19930690E-01  7.20895342E-01  6.74394442E-01  7.06377220E-01  1.00000000E+00
  3.08832628E-01  6.74394442E-01  9.01956348E-01  3.73663963E-01  7.88963228E-01
  1.00000000E+00
Core Hamiltonian Matrix                    R   N=          21
 -5.11150473E-01 -1.00339476E+00 -1.05316838E+00 -6.66366013E-01 -8.49131655E-01
 -8.06427612E-01 -6.19803415E-01 -7.41962683E-01 -5.74016765E-01 -5.11150473E-01
 -7.41962683E-01 -9.07627965E-01 -7.75130819E-01 -1.00339476E+00 -1.05316838E+00
 -5.74016765E-01 -7.75130819E-01 -7.62475489E-01 -6.66366013E-01 -8.49131655E-01
 -8.06427612E-01
Orbital Coefficients CCMAN2 Alpha          R   N=          36
 -1.90401445E-01 -2.96445524E-01 -1.28255384E-01 -1.90401445E-01 -2.96445524E-01
 -1.28255384E-01 -4.92051613E-02 -7.16404211E-01  8.49482429E-01 -4.92051613E-02
 -7.16404211E-01  8.49482429E-01 -1.08808776E+00  1.21961797E+00 -4.86300482E-01
 -1.08808776E+00  1.21961797E+00 -4.86300482E-01 -8.16109337E-02  3.26679806E-02
 -2.23418219E+00  8.16109337E-02 -3.26679806E-02  2.23418219E+00  8.95117364E-02
  1.71733446E+00 -2.18315226E+00 -8.95117364E-02 -1.71733446E+00  2.18315226E+00
  1.12557896E+00 -1.78606447E+00  1.18899691E+00 -1.12557896E+00  1.78606447E+00
 -1.18899691E+00
Number of independent functions            I                6
Alpha MO coefficients                      R   N=          36
 -1.90401445E-01 -2.96445524E-01 -1.28255384E-01 -1.90401445E-01 -2.96445524E-01
 -1.28255384E-01 -8.16109337E-02  3.26679806E-02 -2.23418219E+00  8.16109337E-02
 -3.26679806E-02  2.23418219E+00 -4.92051613E-02 -7.16404211E-01  8.49482429E-01
 -4.92051613E-02 -7.16404211E-01  8.49482429E-01  8.95117364E-02  1.71733446E+00
 -2.18315226E+00 -8.95117364E-02 -1.71733446E+00  2.18315226E+00 -1.08808776E+00
  1.21961797E+00 -4.86300482E-01 -1.08808776E+00  1.21961797E+00 -4.86300482E-01
  1.12557896E+00 -1.78606447E+00  1.18899691E+00 -1.12557896E+00  1.78606447E+00
 -1.18899691E+00
Alpha Orbital Energies                     R   N=           6
 -5.92889313E-01  1.67280196E-01  3.06908934E-01  6.46943380E-01  2.42779660E+00
  2.73533849E+00
Total SCF Density                          R   N=          21
  7.25054203E-02  1.12887312E-01  1.75759897E-01  4.88400207E-02  7.60414689E-02
  3.28988869E-02  7.25054203E-02  1.12887312E-01  4.88400207E-02  7.25054203E-02
  1.12887312E-01  1.75759897E-01  7.60414689E-02  1.12887312E-01  1.75759897E-01
  4.88400207E-02  7.60414689E-02  3.28988869E-02  4.88400207E-02  7.60414689E-02
  3.28988869E-02
Pure Switching                             I                1
Dipole_Data                                R   N=           3
  0.00000000E+00  0.00000000E+00  4.67378061E-15
Quadrupole_Data                            R   N=           6
 -2.05913174E+00  0.00000000E+00 -2.05913174E+00  0.00000000E+00  0.00000000E+00
 -1.62834248E+00
Octapole_Data                              R   N=          10
  0.00000000E+00  0.00000000E+00  0.00000000E+00  0.00000000E+00 -7.56876807E-16
  0.00000000E+00 -7.56876807E-16  0.00000000E+00  0.00000000E+00 -2.01504559E-15
Hexadecapole_Data                          R   N=          15
 -2.01351096E+00  0.00000000E+00 -6.71170319E-01  0.00000000E+00 -2.01351096E+00
  0.00000000E+00  0.00000000E+00  0.00000000E+00  0.00000000E+00 -8.53355140E-01
  0.00000000E+00 -8.53355140E-01  0.00000000E+00  0.00000000E+00 -3.03712223E+00
