Jobname.Temp
SP        R                             3-21G               
Number of atoms                            I                2
Charge                                     I                0
Multiplicity                               I                1
Number of electrons                        I                2
Number of alpha electrons                  I                1
Number of beta electrons                   I                1
Atomic numbers                             I   N=           2
           1           1
Current cartesian coordinates              R   N=           6
  0.00000000E+00  0.00000000E+00 -7.08647297E-01  0.00000000E+00  0.00000000E+00
  7.08647297E-01
Nuclear charges                            R   N=           2
  1.00000000E+00  1.00000000E+00
Number of basis functions                  I                4
Number of contracted shells                I                4
Number of primitive shells                 I                6
Highest angular momentum                   I                0
Largest degree of contraction              I                2
Shell types                                I   N=           4
           0           0           0           0
Number of primitives per shell             I   N=           4
           2           1           2           1
Shell to atom map                          I   N=           4
           1           1           2           2
Primitive exponents                        R   N=           6
  5.44717800E+00  8.24547000E-01  1.83192000E-01  5.44717800E+00  8.24547000E-01
  1.83192000E-01
Contraction coefficients                   R   N=           6
  1.56284981E-01  9.04690888E-01  1.00000000E+00  1.56284981E-01  9.04690888E-01
  1.00000000E+00
Coordinates of each shell                  R   N=          12
  0.00000000E+00  0.00000000E+00 -7.08647297E-01  0.00000000E+00  0.00000000E+00
 -7.08647297E-01  0.00000000E+00  0.00000000E+00  7.08647297E-01  0.00000000E+00
  0.00000000E+00  7.08647297E-01
Overlap Matrix                             R   N=          10
  1.00000000E+00  6.45898940E-01  1.00000000E+00  3.94935407E-01  4.76666782E-01
  1.00000000E+00  4.76666782E-01  8.31943224E-01  6.45898940E-01  1.00000000E+00
Core Hamiltonian Matrix                    R   N=          10
 -8.71276148E-01 -9.26120424E-01 -9.55003166E-01 -7.38814493E-01 -7.60796103E-01
 -8.71276148E-01 -7.60796103E-01 -8.69860601E-01 -9.26120424E-01 -9.55003166E-01
Orbital Coefficients CCMAN2 Alpha          R   N=          16
 -2.88309171E-01 -3.14098988E-01 -2.88309171E-01 -3.14098988E-01 -7.89958339E-01
  6.63179385E-01 -7.89958339E-01  6.63179385E-01  1.14123431E-01  1.60015867E+00
 -1.14123431E-01 -1.60015867E+00 -1.06645665E+00  1.25744922E+00  1.06645665E+00
 -1.25744922E+00
Number of independent functions            I                4
Alpha MO coefficients                      R   N=          16
 -2.88309171E-01 -3.14098988E-01 -2.88309171E-01 -3.14098988E-01  1.14123431E-01
  1.60015867E+00 -1.14123431E-01 -1.60015867E+00 -7.89958339E-01  6.63179385E-01
 -7.89958339E-01  6.63179385E-01 -1.06645665E+00  1.25744922E+00  1.06645665E+00
 -1.25744922E+00
Alpha Orbital Energies                     R   N=           4
 -5.89568137E-01  2.61256937E-01  9.25663452E-01  1.51369451E+00
Total SCF Density                          R   N=          10
  1.66244356E-01  1.81115237E-01  1.97316348E-01  1.66244356E-01  1.81115237E-01
  1.66244356E-01  1.81115237E-01  1.97316348E-01  1.81115237E-01  1.97316348E-01
Pure Switching                             I                1
Dipole_Data                                R   N=           3
  0.00000000E+00  0.00000000E+00  1.12508813E-14
Quadrupole_Data                            R   N=           6
 -2.01432637E+00  0.00000000E+00 -2.01432637E+00  0.00000000E+00  0.00000000E+00
 -1.57495808E+00
Octapole_Data                              R   N=          10
  0.00000000E+00  0.00000000E+00  0.00000000E+00  0.00000000E+00  3.84977231E-15
  0.00000000E+00  3.84977231E-15  0.00000000E+00  0.00000000E+00  1.33741660E-14
Hexadecapole_Data                          R   N=          15
 -1.77770966E+00  0.00000000E+00 -5.92569886E-01  0.00000000E+00 -1.77770966E+00
  0.00000000E+00  0.00000000E+00  0.00000000E+00  0.00000000E+00 -7.65805107E-01
  0.00000000E+00 -7.65805107E-01  0.00000000E+00  0.00000000E+00 -2.74734670E+00
